version 2
run General-0-20200430-22:53:19-15256
attr configname General
attr datetime 20200430-22:53:19
attr experiment General
attr inifile omnetpp.ini
attr iterationvars ""
attr iterationvarsf ""
attr measurement ""
attr network Tictoc16
attr processid 15256
attr repetition 0
attr replication #0
attr resultdir results
attr runnumber 0
attr seedset 0

vector 0 Tictoc16.tic[5] hopCount:vector ETV
attr interpolationmode none
attr source arrival
attr title "hop count, vector"
vector 1 Tictoc16.tic[3] hopCount:vector ETV
attr interpolationmode none
attr source arrival
attr title "hop count, vector"
vector 2 Tictoc16.tic[4] hopCount:vector ETV
attr interpolationmode none
attr source arrival
attr title "hop count, vector"
vector 3 Tictoc16.tic[1] hopCount:vector ETV
attr interpolationmode none
attr source arrival
attr title "hop count, vector"
0	18	1.7	17
0	76	7.5	2
0	78	7.7	1
0	108	10.7	29
0	236	23.5	21
0	336	33.5	6
0	350	34.9	3
0	366	36.5	6
0	428	42.7	6
0	436	43.5	6
0	446	44.5	6
0	504	50.3	56
0	558	55.7	9
0	686	68.5	3
0	716	71.5	21
0	788	78.7	2
0	884	88.3	78
0	888	88.7	2
0	924	92.3	19
0	1000	99.9	3
0	1478	147.7	49
0	1526	152.5	17
0	1580	157.9	9
0	1628	162.7	8
0	1670	166.9	20
0	1734	173.3	27
0	1850	184.9	11
0	1884	188.3	22
0	1924	192.3	1
0	1956	195.5	9
0	2024	202.3	1
0	2106	210.5	42
0	2138	213.7	9
0	2222	222.1	54
0	2242	224.1	12
0	2290	228.9	5
0	2346	234.5	7
0	2388	238.7	9
0	2426	242.5	1
0	2492	249.1	4
0	2534	253.3	9
0	2566	256.5	10
0	2598	259.7	13
0	2614	261.3	2
0	2662	266.1	26
0	2886	288.5	31
0	2938	293.7	9
0	3068	306.7	54
0	3144	314.3	2
0	3170	316.9	18
0	3192	319.1	15
0	3204	320.3	4
0	3304	330.3	6
0	3390	338.9	29
0	3394	339.3	3
0	3402	340.1	7
0	3422	342.1	18
0	3440	343.9	6
0	3464	346.3	6
0	3528	352.7	38
0	3550	354.9	17
0	3590	358.9	15
0	3604	360.3	3
0	3606	360.5	1
0	3756	375.5	32
0	3914	391.3	1
0	3928	392.7	5
0	3958	395.7	2
0	4072	407.1	43
0	4108	410.7	2
0	4130	412.9	1
0	4136	413.5	2
0	4212	421.1	18
0	4258	425.7	14
0	4372	437.1	35
0	4532	453.1	4
0	4586	458.5	4
0	4694	469.3	24
0	4704	470.3	6
0	4794	479.3	29
0	4856	485.5	8
0	4888	488.7	11
0	5034	503.3	3
0	5096	509.5	8
0	5142	514.1	4
0	5158	515.7	5
0	5278	527.7	30
0	5386	538.5	25
0	5480	547.9	10
0	5560	555.9	26
0	5578	557.7	14
0	5594	559.3	4
0	5674	567.3	10
0	5714	571.3	27
0	5738	573.7	9
0	5782	578.1	9
0	5802	580.1	1
0	5958	595.7	1
0	5972	597.1	3
0	5996	599.5	1
0	6048	604.7	10
0	6100	609.9	25
0	6128	612.7	13
0	6230	622.9	21
0	6268	626.7	32
0	6292	629.1	7
0	6360	635.9	6
0	6528	652.7	35
0	6628	662.7	15
0	6634	663.3	4
0	6706	670.5	27
0	6776	677.5	18
0	6784	678.3	2
0	6868	686.7	33
0	6902	690.1	7
0	6938	693.7	5
0	6970	696.9	21
0	7030	702.9	25
0	7082	708.1	3
0	7142	714.1	45
0	7166	716.5	18
0	7210	720.9	3
0	7322	732.1	23
0	7328	732.7	4
0	7374	737.3	14
0	7484	748.3	15
0	7498	749.7	9
0	7568	756.7	7
0	7598	759.7	13
0	7622	762.1	22
0	7700	769.9	9
0	7720	771.9	1
0	7752	775.1	19
0	7764	776.3	7
0	7812	781.1	11
0	7848	784.7	10
0	7958	795.7	59
0	7986	798.5	7
0	8040	803.9	44
0	8060	805.9	11
0	8318	831.7	6
0	8402	840.1	24
0	8504	850.3	4
0	8574	857.3	25
0	8628	862.7	2
0	8680	867.9	1
0	8716	871.5	15
0	8784	878.3	7
0	8902	890.1	19
0	8994	899.3	27
0	9044	904.3	25
0	9068	906.7	19
0	9080	907.9	5
0	9152	915.1	3
0	9164	916.3	8
0	9170	916.9	4
0	9182	918.1	4
0	9206	920.5	7
0	9312	931.1	19
0	9340	933.9	11
0	9352	935.1	9
0	9458	945.7	25
0	9528	952.7	17
0	9594	959.3	1
0	9732	973.1	17
0	9778	977.7	1
0	9818	981.7	27
0	9866	986.5	8
0	9934	993.3	29
0	10038	1003.7	11
0	10078	1007.7	22
0	10096	1009.5	6
0	10140	1013.9	3
0	10158	1015.7	3
0	10180	1017.9	1
0	10194	1019.3	8
0	10264	1026.3	9
0	10352	1035.1	3
0	10526	1052.5	13
0	10562	1056.1	11
0	10616	1061.5	29
0	10668	1066.7	4
0	10680	1067.9	7
0	10694	1069.3	13
0	10784	1078.3	6
0	10804	1080.3	4
0	10812	1081.1	4
0	10830	1082.9	16
0	10912	1091.1	5
0	10998	1099.7	13
0	11120	1111.9	6
0	11154	1115.3	2
0	11180	1117.9	7
0	11344	1134.3	4
0	11402	1140.1	3
0	11430	1142.9	18
0	11494	1149.3	3
0	11580	1157.9	7
0	11606	1160.5	7
0	11616	1161.5	4
0	11792	1179.1	6
0	12072	1207.1	4
0	12084	1208.3	11
0	12124	1212.3	1
0	12152	1215.1	10
0	12210	1220.9	33
0	12216	1221.5	3
0	12284	1228.3	9
0	12330	1232.9	18
0	12352	1235.1	12
0	12378	1237.7	6
0	12412	1241.1	6
0	12468	1246.7	10
0	12510	1250.9	9
0	12520	1251.9	1
0	12660	1265.9	3
0	12676	1267.5	5
0	12722	1272.1	8
0	12864	1286.3	8
0	12874	1287.3	1
0	12910	1290.9	1
0	12934	1293.3	18
0	12966	1296.5	29
0	13056	1305.5	11
0	13058	1305.7	1
0	13084	1308.3	24
0	13128	1312.7	9
0	13144	1314.3	8
0	13168	1316.7	1
0	13208	1320.7	5
0	13244	1324.3	15
0	13260	1325.9	15
0	13322	1332.1	13
0	13362	1336.1	29
0	13464	1346.3	9
0	13470	1346.9	4
0	13502	1350.1	12
0	13554	1355.3	4
0	13566	1356.5	7
0	13820	1381.9	13
0	13886	1388.5	9
0	13902	1390.1	9
0	13950	1394.9	24
0	13986	1398.5	15
0	14012	1401.1	24
0	14070	1406.9	17
0	14136	1413.5	28
0	14182	1418.1	22
0	14228	1422.7	14
0	14322	1432.1	11
0	14418	1441.7	12
0	14484	1448.3	9
0	14546	1454.5	15
0	14634	1463.3	31
0	14668	1466.7	6
0	14688	1468.7	15
0	14722	1472.1	4
0	14738	1473.7	11
0	14788	1478.7	40
0	14836	1483.5	2
0	14872	1487.1	29
0	14898	1489.7	2
0	15088	1508.7	13
0	15138	1513.7	9
0	15194	1519.3	23
0	15224	1522.3	9
0	15266	1526.5	17
0	15298	1529.7	21
0	15332	1533.1	9
0	15366	1536.5	8
0	15382	1538.1	4
0	15410	1540.9	5
0	15516	1551.5	35
0	15594	1559.3	23
0	15682	1568.1	2
0	15760	1575.9	23
0	15808	1580.7	5
0	15850	1584.9	31
0	15852	1585.1	1
0	15906	1590.5	9
0	15982	1598.1	5
0	16012	1601.1	12
0	16102	1610.1	9
0	16132	1613.1	18
0	16154	1615.3	3
0	16176	1617.5	13
0	16266	1626.5	39
0	16272	1627.1	4
0	16348	1634.7	6
0	16352	1635.1	2
0	16368	1636.7	1
0	16382	1638.1	3
0	16456	1645.5	22
0	16518	1651.7	5
0	16676	1667.5	17
0	16748	1674.7	52
0	16856	1685.5	18
0	16868	1686.7	6
0	16984	1698.3	11
0	17212	1721.1	11
0	17240	1723.9	15
0	17242	1724.1	1
0	17380	1737.9	4
0	17398	1739.7	5
0	17476	1747.5	15
0	17508	1750.7	25
0	17516	1751.5	3
0	17580	1757.9	2
0	17588	1758.7	2
0	17718	1771.7	13
0	17736	1773.5	2
0	17772	1777.1	3
0	17806	1780.5	19
0	17884	1788.3	3
0	17928	1792.7	33
0	17974	1797.3	14
0	18092	1809.1	4
0	18134	1813.3	17
0	18164	1816.3	17
0	18218	1821.7	11
0	18240	1823.9	2
0	18284	1828.3	19
0	18350	1834.9	9
0	18476	1847.5	36
0	18486	1848.5	7
0	18552	1855.1	13
0	18596	1859.5	1
0	18692	1869.1	14
0	18712	1871.1	1
0	18720	1871.9	7
0	18896	1889.5	29
0	18952	1895.1	30
0	19000	1899.9	25
0	19022	1902.1	21
0	19052	1905.1	2
0	19162	1916.1	1
0	19214	1921.3	5
0	19252	1925.1	6
0	19280	1927.9	2
0	19308	1930.7	6
0	19318	1931.7	9
0	19348	1934.7	15
0	19458	1945.7	4
0	19546	1954.5	24
0	19660	1965.9	75
0	19712	1971.1	11
0	19774	1977.3	5
0	19838	1983.7	21
0	19870	1986.9	26
0	20000	1999.9	1
0	20024	2002.3	14
0	20066	2006.5	5
0	20068	2006.7	1
0	20130	2012.9	7
0	20136	2013.5	4
0	20144	2014.3	4
0	20190	2018.9	31
0	20254	2025.3	59
0	20302	2030.1	4
0	20364	2036.3	9
0	20402	2040.1	8
0	20500	2049.9	3
0	20506	2050.5	2
0	20526	2052.5	15
0	20618	2061.7	15
0	20708	2070.7	7
0	20736	2073.5	7
0	20800	2079.9	9
0	20830	2082.9	1
0	20868	2086.7	23
0	20996	2099.5	2
0	21048	2104.7	2
0	21232	2123.1	35
0	21236	2123.5	2
0	21282	2128.1	25
0	21288	2128.7	3
0	21328	2132.7	11
0	21448	2144.7	29
0	21508	2150.7	21
0	21586	2158.5	2
0	21658	2165.7	40
0	21680	2167.9	7
0	21720	2171.9	15
0	21778	2177.7	20
0	21848	2184.7	3
0	21912	2191.1	38
0	21922	2192.1	8
0	21992	2199.1	4
0	22088	2208.7	4
0	22112	2211.1	5
0	22150	2214.9	9
0	22156	2215.5	5
0	22234	2223.3	38
0	22256	2225.5	21
0	22268	2226.7	9
0	22360	2235.9	13
0	22370	2236.9	2
0	22440	2243.9	19
0	22488	2248.7	9
0	22510	2250.9	4
0	22642	2264.1	17
0	22712	2271.1	28
0	22756	2275.5	26
0	22798	2279.7	32
0	22830	2282.9	3
0	22892	2289.1	15
0	23086	2308.5	21
0	23144	2314.3	35
0	23220	2321.9	14
0	23232	2323.1	2
0	23246	2324.5	5
0	23304	2330.3	21
0	23406	2340.5	17
0	23420	2341.9	6
0	23484	2348.3	27
0	23562	2356.1	9
0	23580	2357.9	14
0	23646	2364.5	46
0	23676	2367.5	16
0	23694	2369.3	2
0	23712	2371.1	16
0	23726	2372.5	5
0	23732	2373.1	4
0	23766	2376.5	8
0	23790	2378.9	2
0	23828	2382.7	2
0	23850	2384.9	7
0	23898	2389.7	5
0	23950	2394.9	9
0	23978	2397.7	2
0	24018	2401.7	14
0	24134	2413.3	1
0	24164	2416.3	25
0	24170	2416.9	3
0	24232	2423.1	45
0	24262	2426.1	2
0	24386	2438.5	11
0	24438	2443.7	39
0	24532	2453.1	29
0	24624	2462.3	15
0	24656	2465.5	1
0	24674	2467.3	16
0	24760	2475.9	53
0	24824	2482.3	39
0	24838	2483.7	10
0	24902	2490.1	8
0	24984	2498.3	1
0	25006	2500.5	11
0	25076	2507.5	2
0	25130	2512.9	1
0	25260	2525.9	13
0	25302	2530.1	17
0	25360	2535.9	2
0	25430	2542.9	6
0	25482	2548.1	8
0	25524	2552.3	25
0	25548	2554.7	5
0	25576	2557.5	11
0	25582	2558.1	2
0	25614	2561.3	5
0	25752	2575.1	2
0	25782	2578.1	1
0	25844	2584.3	7
0	25910	2590.9	9
0	25974	2597.3	18
0	25982	2598.1	1
0	26034	2603.3	7
0	26076	2607.5	33
0	26098	2609.7	15
0	26128	2612.7	17
0	26218	2621.7	7
0	26284	2628.3	9
0	26310	2630.9	15
0	26338	2633.7	5
0	26354	2635.3	4
0	26418	2641.7	28
0	26470	2646.9	6
0	26516	2651.5	40
0	26710	2670.9	28
0	26734	2673.3	3
0	26766	2676.5	14
0	26784	2678.3	13
0	26828	2682.7	13
0	26850	2684.9	3
0	26884	2688.3	18
0	27002	2700.1	17
0	27014	2701.3	10
0	27024	2702.3	8
0	27038	2703.7	5
0	27082	2708.1	9
0	27308	2730.7	1
0	27340	2733.9	6
0	27390	2738.9	35
0	27526	2752.5	3
0	27534	2753.3	5
0	27574	2757.3	23
0	27584	2758.3	8
0	27642	2764.1	37
0	27668	2766.7	6
0	27806	2780.5	1
0	27882	2788.1	33
0	27972	2797.1	32
0	28016	2801.5	5
0	28030	2802.9	10
0	28086	2808.5	4
0	28140	2813.9	12
0	28242	2824.1	10
0	28284	2828.3	17
0	28336	2833.5	2
0	28356	2835.5	14
0	28372	2837.1	12
0	28496	2849.5	6
0	28524	2852.3	7
0	28622	2862.1	12
0	28632	2863.1	3
0	28664	2866.3	30
0	28712	2871.1	11
0	28714	2871.3	1
0	28812	2881.1	25
0	28824	2882.3	11
0	28898	2889.7	15
0	28994	2899.3	3
0	29086	2908.5	14
0	29120	2911.9	23
0	29208	2920.7	1
0	29248	2924.7	3
0	29302	2930.1	25
0	29394	2939.3	2
0	29416	2941.5	3
0	29498	2949.7	7
0	29568	2956.7	13
0	29592	2959.1	1
0	29644	2964.3	23
0	29836	2983.5	68
0	29864	2986.3	13
0	29898	2989.7	21
0	29986	2998.5	24
0	30006	3000.5	12
0	30210	3020.9	4
0	30258	3025.7	7
0	30288	3028.7	4
0	30312	3031.1	7
0	30336	3033.5	12
0	30344	3034.3	3
0	30386	3038.5	21
0	30406	3040.5	15
0	30416	3041.5	4
0	30434	3043.3	3
0	30528	3052.7	16
0	30616	3061.5	7
0	30664	3066.3	3
0	30678	3067.7	1
0	30740	3073.9	1
0	30790	3078.9	6
0	30812	3081.1	9
0	30830	3082.9	7
0	30936	3093.5	11
0	30946	3094.5	7
0	30962	3096.1	4
0	30988	3098.7	20
0	31126	3112.5	38
0	31226	3122.5	9
0	31306	3130.5	15
0	31330	3132.9	9
0	31422	3142.1	20
0	31488	3148.7	7
0	31524	3152.3	6
0	31806	3180.5	2
0	31896	3189.5	1
0	31976	3197.5	26
0	32044	3204.3	2
0	32046	3204.5	1
0	32050	3204.9	2
0	32072	3207.1	20
0	32144	3214.3	21
0	32232	3223.1	21
0	32254	3225.3	13
0	32274	3227.3	2
0	32298	3229.7	6
0	32334	3233.3	16
0	32344	3234.3	8
0	32380	3237.9	6
0	32398	3239.7	3
0	32432	3243.1	33
0	32504	3250.3	15
0	32550	3254.9	4
0	32554	3255.3	3
0	32594	3259.3	22
0	32666	3266.5	27
0	32826	3282.5	7
0	32990	3298.9	2
0	33006	3300.5	3
0	33010	3300.9	3
0	33082	3308.1	37
0	33118	3311.7	10
0	33162	3316.1	18
0	33194	3319.3	11
0	33196	3319.5	1
0	33326	3332.5	2
0	33422	3342.1	16
0	33440	3343.9	5
0	33448	3344.7	1
0	33452	3345.1	3
0	33512	3351.1	5
0	33520	3351.9	6
0	33718	3371.7	1
0	33826	3382.5	7
0	33846	3384.5	3
0	33890	3388.9	31
0	33908	3390.7	3
0	33950	3394.9	2
0	33964	3396.3	3
0	34070	3406.9	4
0	34102	3410.1	2
0	34148	3414.7	8
0	34194	3419.3	19
0	34200	3419.9	3
0	34204	3420.3	3
0	34242	3424.1	27
0	34280	3427.9	15
0	34360	3435.9	11
0	34414	3441.3	15
0	34516	3451.5	13
0	34540	3453.9	7
0	34592	3459.1	8
0	34610	3460.9	3
0	34654	3465.3	10
0	34748	3474.7	5
0	34774	3477.3	3
0	34830	3482.9	2
0	34844	3484.3	8
0	34962	3496.1	10
0	35048	3504.7	3
0	35128	3512.7	8
0	35134	3513.3	5
0	35184	3518.3	2
0	35232	3523.1	8
0	35300	3529.9	16
0	35334	3533.3	4
0	35348	3534.7	3
0	35382	3538.1	9
0	35512	3551.1	33
0	35610	3560.9	2
0	35756	3575.5	3
0	35826	3582.5	7
0	35844	3584.3	16
0	35858	3585.7	12
0	35886	3588.5	10
0	35952	3595.1	7
0	36018	3601.7	6
0	36098	3609.7	2
0	36114	3611.3	9
0	36178	3617.7	55
0	36234	3623.3	37
0	36252	3625.1	9
0	36290	3628.9	21
0	36348	3634.7	9
0	36450	3644.9	2
0	36518	3651.7	31
0	36642	3664.1	17
0	36710	3670.9	16
0	36712	3671.1	1
0	36768	3676.7	26
0	36794	3679.3	7
0	36816	3681.5	18
0	36900	3689.9	55
0	36978	3697.7	16
0	37128	3712.7	11
0	37334	3733.3	11
0	37420	3741.9	9
0	37422	3742.1	1
0	37436	3743.5	12
0	37498	3749.7	21
0	37528	3752.7	2
0	37552	3755.1	19
0	37620	3761.9	11
0	37676	3767.5	17
0	37712	3771.1	21
0	37766	3776.5	21
0	37786	3778.5	2
0	37842	3784.1	7
0	37882	3788.1	38
0	37922	3792.1	23
0	37924	3792.3	1
0	37944	3794.3	12
0	38062	3806.1	10
0	38076	3807.5	9
0	38084	3808.3	5
0	38190	3818.9	35
0	38214	3821.3	1
0	38278	3827.7	9
0	38358	3835.7	6
0	38382	3838.1	1
0	38396	3839.5	2
0	38432	3843.1	6
0	38458	3845.7	4
0	38550	3854.9	9
0	38614	3861.3	3
0	38622	3862.1	3
0	38642	3864.1	16
0	38660	3865.9	16
0	38762	3876.1	1
0	38780	3877.9	7
0	38794	3879.3	6
0	38914	3891.3	7
0	39062	3906.1	38
0	39096	3909.5	4
0	39124	3912.3	8
0	39140	3913.9	3
0	39172	3917.1	16
0	39250	3924.9	17
0	39278	3927.7	11
0	39284	3928.3	5
0	39414	3941.3	32
0	39462	3946.1	19
0	39510	3950.9	33
0	39632	3963.1	5
0	39664	3966.3	6
0	39676	3967.5	3
0	39796	3979.5	42
0	39864	3986.3	3
0	39956	3995.5	25
0	39968	3996.7	5
0	39994	3999.3	22
0	40018	4001.7	5
0	40072	4007.1	10
0	40176	4017.5	35
0	40282	4028.1	20
0	40332	4033.1	5
0	40436	4043.5	13
0	40474	4047.3	7
0	40500	4049.9	23
0	40548	4054.7	9
0	40630	4062.9	7
0	40660	4065.9	1
0	40816	4081.5	43
0	40818	4081.7	1
0	40854	4085.3	3
0	40922	4092.1	2
0	41024	4102.3	4
0	41076	4107.5	11
0	41154	4115.3	3
0	41192	4119.1	11
0	41230	4122.9	8
0	41324	4132.3	43
0	41342	4134.1	9
0	41366	4136.5	22
0	41396	4139.5	28
0	41464	4146.3	2
0	41506	4150.5	25
0	41526	4152.5	13
0	41544	4154.3	13
0	41604	4160.3	5
0	41608	4160.7	3
0	41666	4166.5	15
0	41716	4171.5	5
0	41720	4171.9	3
0	41986	4198.5	7
0	42092	4209.1	48
0	42124	4212.3	13
0	42132	4213.1	4
0	42152	4215.1	15
0	42314	4231.3	14
0	42344	4234.3	7
0	42420	4241.9	29
0	42530	4252.9	11
0	42594	4259.3	4
0	42660	4265.9	17
0	42788	4278.7	3
0	42854	4285.3	41
0	42894	4289.3	5
0	43006	4300.5	10
0	43060	4305.9	1
0	43068	4306.7	4
0	43122	4312.1	42
0	43184	4318.3	8
0	43272	4327.1	21
0	43294	4329.3	18
0	43310	4330.9	9
0	43334	4333.3	18
0	43378	4337.7	13
0	43428	4342.7	7
0	43538	4353.7	36
0	43568	4356.7	1
0	43604	4360.3	31
0	43640	4363.9	17
0	43722	4372.1	73
0	43772	4377.1	42
0	43992	4399.1	5
0	44010	4400.9	7
0	44078	4407.7	8
0	44114	4411.3	5
0	44178	4417.7	3
0	44244	4424.3	7
0	44310	4430.9	3
0	44374	4437.3	36
0	44398	4439.7	22
0	44474	4447.3	4
0	44494	4449.3	11
0	44534	4453.3	33
0	44580	4457.9	7
0	44636	4463.5	2
0	44680	4467.9	25
0	44796	4479.5	20
0	44892	4489.1	8
0	44940	4493.9	3
0	44982	4498.1	21
0	45026	4502.5	6
0	45076	4507.5	11
0	45242	4524.1	17
0	45262	4526.1	8
0	45302	4530.1	7
0	45474	4547.3	2
0	45516	4551.5	10
0	45560	4555.9	26
0	45682	4568.1	11
0	45796	4579.5	31
0	45900	4589.9	2
0	46018	4601.7	29
0	46036	4603.5	13
0	46084	4608.3	20
0	46096	4609.5	3
0	46140	4613.9	4
0	46156	4615.5	2
0	46194	4619.3	7
0	46292	4629.1	19
0	46352	4635.1	17
0	46406	4640.5	7
0	46464	4646.3	6
0	46478	4647.7	6
0	46480	4647.9	1
0	46512	4651.1	22
0	46664	4666.3	35
0	46834	4683.3	18
0	46980	4697.9	2
0	47112	4711.1	22
0	47122	4712.1	4
0	47166	4716.5	4
0	47338	4733.7	19
0	47356	4735.5	1
0	47480	4747.9	25
0	47498	4749.7	5
0	47548	4754.7	3
0	47566	4756.5	2
0	47588	4758.7	6
0	47736	4773.5	2
0	47826	4782.5	3
0	47856	4785.5	17
0	47976	4797.5	2
0	48050	4804.9	23
0	48108	4810.7	25
0	48160	4815.9	3
0	48224	4822.3	2
0	48234	4823.3	8
0	48298	4829.7	33
0	48470	4846.9	43
0	48484	4848.3	10
0	48512	4851.1	7
0	48590	4858.9	26
0	48612	4861.1	11
0	48664	4866.3	42
0	48680	4867.9	12
0	48726	4872.5	4
0	48798	4879.7	8
0	48826	4882.5	20
0	48904	4890.3	5
0	48976	4897.5	3
0	48994	4899.3	1
0	49024	4902.3	1
0	49058	4905.7	3
0	49144	4914.3	16
0	49178	4917.7	24
0	49184	4918.3	2
0	49200	4919.9	3
0	49210	4920.9	1
0	49254	4925.3	11
0	49296	4929.5	26
0	49302	4930.1	3
0	49356	4935.5	3
0	49546	4954.5	33
0	49580	4957.9	17
0	49598	4959.7	10
0	49626	4962.5	6
0	49672	4967.1	23
0	49730	4972.9	29
0	49794	4979.3	12
0	49932	4993.1	17
0	50206	5020.5	1
0	50208	5020.7	1
0	50264	5026.3	2
0	50266	5026.5	1
0	50282	5028.1	10
0	50286	5028.5	3
0	50374	5037.3	31
0	50432	5043.1	9
0	50580	5057.9	7
0	50590	5058.9	3
0	50594	5059.3	3
0	50688	5068.7	41
0	50726	5072.5	3
0	50754	5075.3	24
0	50796	5079.5	16
0	50828	5082.7	7
0	50938	5093.7	8
0	50972	5097.1	2
0	51180	5117.9	5
0	51228	5122.7	15
0	51260	5125.9	2
0	51342	5134.1	31
0	51420	5141.9	52
0	51446	5144.5	17
0	51464	5146.3	2
0	51524	5152.3	20
0	51586	5158.5	3
0	51678	5167.7	17
0	51708	5170.7	8
0	51732	5173.1	22
0	51758	5175.7	1
0	51760	5175.9	1
0	51842	5184.1	17
0	51894	5189.3	6
0	51950	5194.9	29
0	52208	5220.7	19
0	52326	5232.5	19
0	52418	5241.7	22
0	52458	5245.7	7
0	52470	5246.9	11
0	52502	5250.1	7
0	52552	5255.1	2
0	52638	5263.7	17
0	52686	5268.5	12
0	52764	5276.3	9
0	52864	5286.3	7
0	52906	5290.5	9
0	52946	5294.5	3
0	53164	5316.3	13
0	53216	5321.5	3
0	53302	5330.1	12
0	53320	5331.9	3
0	53344	5334.3	3
0	53372	5337.1	13
0	53424	5342.3	13
0	53510	5350.9	13
0	53554	5355.3	42
0	53768	5376.7	5
0	53798	5379.7	5
0	53916	5391.5	2
0	54126	5412.5	3
0	54244	5424.3	19
0	54344	5434.3	52
0	54414	5441.3	19
0	54436	5443.5	9
0	54478	5447.7	13
0	54508	5450.7	22
0	54548	5454.7	4
0	54696	5469.5	1
0	54720	5471.9	2
0	54772	5477.1	4
0	54806	5480.5	6
0	54904	5490.3	8
0	54936	5493.5	23
0	54994	5499.3	5
0	55028	5502.7	5
0	55050	5504.9	3
0	55100	5509.9	7
0	55136	5513.5	17
0	55310	5530.9	10
0	55316	5531.5	2
0	55340	5533.9	8
0	55424	5542.3	14
0	55548	5554.7	1
0	55684	5568.3	35
0	55718	5571.7	2
0	55774	5577.3	3
0	55794	5579.3	6
0	55840	5583.9	20
0	55852	5585.1	9
0	55918	5591.7	13
0	56028	5602.7	15
0	56084	5608.3	5
0	56096	5609.5	1
0	56224	5622.3	7
0	56240	5623.9	3
0	56324	5632.3	5
0	56444	5644.3	33
0	56460	5645.9	11
0	56644	5664.3	5
0	56764	5676.3	1
0	56804	5680.3	24
0	56878	5687.7	9
0	56914	5691.3	25
0	56970	5696.9	43
0	57014	5701.3	14
0	57054	5705.3	1
0	57126	5712.5	26
0	57134	5713.3	7
0	57184	5718.3	13
0	57230	5722.9	40
0	57270	5726.9	13
0	57366	5736.5	2
0	57396	5739.5	3
0	57522	5752.1	59
0	57692	5769.1	17
0	57710	5770.9	5
0	57790	5778.9	3
0	57834	5783.3	4
0	57848	5784.7	6
0	57882	5788.1	2
0	57918	5791.7	3
0	58034	5803.3	24
0	58058	5805.7	16
0	58202	5820.1	7
0	58242	5824.1	17
0	58466	5846.5	4
0	58586	5858.5	7
0	58590	5858.9	2
0	58620	5861.9	13
0	58624	5862.3	1
0	58646	5864.5	11
0	58816	5881.5	8
0	58836	5883.5	7
0	58928	5892.7	13
0	58944	5894.3	13
0	58972	5897.1	18
0	59108	5910.7	51
0	59146	5914.5	30
0	59182	5918.1	3
0	59214	5921.3	2
0	59266	5926.5	6
0	59270	5926.9	3
0	59364	5936.3	18
0	59424	5942.3	16
0	59432	5943.1	6
0	59586	5958.5	13
0	59598	5959.7	7
0	59636	5963.5	15
0	59710	5970.9	37
0	59854	5985.3	2
0	59914	5991.3	13
0	59956	5995.5	5
0	59982	5998.1	3
0	60008	6000.7	19
0	60040	6003.9	2
0	60088	6008.7	38
0	60116	6011.5	8
0	60164	6016.3	13
0	60188	6018.7	6
0	60288	6028.7	22
0	60350	6034.9	16
0	60396	6039.5	15
0	60416	6041.5	19
0	60426	6042.5	7
0	60500	6049.9	15
0	60540	6053.9	33
0	60616	6061.5	26
0	60698	6069.7	2
0	60732	6073.1	26
0	60816	6081.5	5
0	60818	6081.7	1
0	60824	6082.3	3
0	60904	6090.3	13
0	60986	6098.5	2
0	61000	6099.9	3
0	61010	6100.9	2
0	61082	6108.1	16
0	61120	6111.9	2
0	61362	6136.1	20
0	61472	6147.1	27
0	61514	6151.3	15
0	61556	6155.5	13
0	61644	6164.3	2
0	61764	6176.3	7
0	61912	6191.1	40
0	61962	6196.1	17
0	62100	6209.9	62
0	62162	6216.1	13
0	62184	6218.3	4
0	62204	6220.3	9
0	62262	6226.1	4
0	62362	6236.1	4
0	62390	6238.9	3
0	62402	6240.1	4
0	62404	6240.3	1
0	62478	6247.7	1
0	62498	6249.7	11
0	62524	6252.3	12
0	62554	6255.3	5
0	62730	6272.9	21
0	62772	6277.1	4
0	62876	6287.5	21
0	62894	6289.3	3
0	63084	6308.3	71
0	63100	6309.9	5
0	63142	6314.1	20
0	63154	6315.3	5
0	63364	6336.3	4
0	63368	6336.7	3
0	63396	6339.5	20
0	63426	6342.5	3
0	63444	6344.3	9
0	63494	6349.3	10
0	63600	6359.9	23
0	63618	6361.7	7
0	63648	6364.7	6
0	63770	6376.9	9
0	63828	6382.7	3
0	63898	6389.7	5
0	64158	6415.7	25
0	64216	6421.5	35
0	64284	6428.3	14
0	64378	6437.7	10
0	64384	6438.3	3
0	64402	6440.1	15
0	64414	6441.3	11
0	64482	6448.1	6
0	64538	6453.7	20
0	64558	6455.7	9
0	64612	6461.1	53
0	64782	6478.1	9
0	64834	6483.3	13
0	64946	6494.5	64
0	65024	6502.3	8
0	65110	6510.9	3
0	65144	6514.3	10
0	65180	6517.9	10
0	65210	6520.9	12
0	65292	6529.1	10
0	65368	6536.7	9
0	65460	6545.9	7
0	65490	6548.9	29
0	65586	6558.5	46
0	65604	6560.3	10
0	65630	6562.9	10
0	65672	6567.1	2
0	65736	6573.5	7
0	65782	6578.1	42
0	65790	6578.9	4
0	65930	6592.9	7
0	66018	6601.7	23
0	66086	6608.5	24
0	66148	6614.7	3
0	66162	6616.1	2
0	66232	6623.1	36
0	66258	6625.7	6
0	66302	6630.1	7
0	66340	6633.9	19
0	66360	6635.9	11
0	66468	6646.7	26
0	66510	6650.9	37
0	66526	6652.5	12
0	66616	6661.5	8
0	66702	6670.1	31
0	66704	6670.3	1
0	66758	6675.7	3
0	66818	6681.7	11
0	66836	6683.5	10
0	66868	6686.7	7
0	66942	6694.1	8
0	66984	6698.3	8
0	67006	6700.5	4
0	67016	6701.5	8
0	67052	6705.1	5
0	67194	6719.3	65
0	67296	6729.5	4
0	67310	6730.9	7
0	67344	6734.3	15
0	67364	6736.3	7
0	67482	6748.1	19
0	67492	6749.1	8
0	67506	6750.5	1
0	67534	6753.3	1
0	67538	6753.7	3
0	67578	6757.7	13
0	67640	6763.9	7
0	67698	6769.7	23
0	67714	6771.3	8
0	67758	6775.7	4
0	67778	6777.7	5
0	67852	6785.1	28
0	67910	6790.9	12
0	67964	6796.3	31
0	68000	6799.9	10
0	68046	6804.5	1
0	68082	6808.1	16
0	68188	6818.7	13
0	68202	6820.1	3
0	68344	6834.3	35
0	68346	6834.5	1
0	68470	6846.9	33
0	68720	6871.9	8
0	68818	6881.7	10
0	68828	6882.7	5
0	68832	6883.1	3
0	68880	6887.9	14
0	68900	6889.9	2
0	68930	6892.9	11
0	68948	6894.7	2
0	69012	6901.1	8
0	69162	6916.1	1
0	69220	6921.9	2
0	69222	6922.1	1
0	69234	6923.3	10
0	69258	6925.7	14
0	69342	6934.1	14
0	69398	6939.7	7
0	69410	6940.9	5
0	69470	6946.9	5
0	69488	6948.7	6
0	69578	6957.7	16
0	69618	6961.7	23
0	69630	6962.9	6
0	69710	6970.9	7
0	69730	6972.9	2
0	69910	6990.9	25
0	69958	6995.7	18
0	70056	7005.5	1
0	70110	7010.9	25
0	70168	7016.7	14
0	70270	7026.9	4
0	70284	7028.3	12
0	70332	7033.1	37
0	70338	7033.7	3
0	70354	7035.3	1
0	70408	7040.7	46
0	70480	7047.9	13
0	70608	7060.7	2
0	70628	7062.7	11
0	70648	7064.7	7
0	70700	7069.9	19
0	70734	7073.3	11
0	70770	7076.9	3
0	70802	7080.1	27
0	70890	7088.9	24
0	70914	7091.3	20
0	71068	7106.7	41
0	71146	7114.5	40
0	71156	7115.5	1
0	71302	7130.1	2
0	71506	7150.5	30
0	71570	7156.9	2
0	71604	7160.3	3
0	71686	7168.5	3
0	71780	7177.9	2
0	71988	7198.7	28
0	72010	7200.9	11
0	72078	7207.7	3
0	72126	7212.5	3
0	72182	7218.1	3
0	72234	7223.3	9
0	72304	7230.3	32
0	72354	7235.3	11
0	72372	7237.1	11
0	72386	7238.5	4
0	72474	7247.3	5
0	72498	7249.7	1
0	72556	7255.5	11
0	72620	7261.9	16
0	72644	7264.3	18
0	72672	7267.1	27
0	72674	7267.3	1
0	72694	7269.3	10
0	72712	7271.1	5
0	72742	7274.1	19
0	72810	7280.9	1
0	72904	7290.3	2
0	72944	7294.3	29
0	73168	7316.7	84
0	73210	7320.9	5
0	73266	7326.5	4
0	73360	7335.9	4
0	73396	7339.5	30
0	73448	7344.7	10
0	73510	7350.9	2
0	73614	7361.3	8
0	73646	7364.5	31
0	73732	7373.1	16
0	73764	7376.3	3
0	73832	7383.1	16
0	73872	7387.1	6
0	73888	7388.7	14
0	73986	7398.5	52
0	74154	7415.3	6
0	74380	7437.9	3
0	74468	7446.7	35
0	74498	7449.7	12
0	74554	7455.3	14
0	74626	7462.5	4
0	74634	7463.3	3
0	74654	7465.3	4
0	74758	7475.7	15
0	74812	7481.1	19
0	74958	7495.7	2
0	75122	7512.1	12
0	75208	7520.7	61
0	75250	7524.9	2
0	75270	7526.9	2
0	75304	7530.3	7
0	75312	7531.1	4
0	75358	7535.7	3
0	75378	7537.7	9
0	75444	7544.3	41
0	75532	7553.1	1
0	75552	7555.1	18
0	75626	7562.5	21
0	75658	7565.7	15
0	75780	7577.9	8
0	75802	7580.1	3
0	76012	7601.1	17
0	76068	7606.7	2
0	76098	7609.7	15
0	76134	7613.3	15
0	76188	7618.7	41
0	76234	7623.3	6
0	76250	7624.9	12
0	76270	7626.9	13
0	76444	7644.3	3
0	76474	7647.3	1
0	76510	7650.9	14
0	76536	7653.5	10
0	76620	7661.9	41
0	76638	7663.7	8
0	76658	7665.7	10
0	76674	7667.3	4
0	76720	7671.9	1
0	76754	7675.3	2
0	76848	7684.7	17
0	76906	7690.5	14
0	76948	7694.7	7
0	76972	7697.1	10
0	77034	7703.3	26
0	77276	7727.5	64
0	77358	7735.7	1
0	77410	7740.9	21
0	77468	7746.7	2
0	77546	7754.5	17
0	77604	7760.3	2
0	77662	7766.1	2
0	77698	7769.7	2
0	77768	7776.7	4
0	77816	7781.5	14
0	77878	7787.7	6
0	77932	7793.1	3
0	77950	7794.9	10
0	78000	7799.9	7
0	78044	7804.3	2
0	78080	7807.9	30
0	78136	7813.5	4
0	78260	7825.9	41
0	78316	7831.5	9
0	78386	7838.5	37
0	78400	7839.9	5
0	78562	7856.1	1
0	78614	7861.3	35
0	78712	7871.1	7
0	78770	7876.9	9
0	78782	7878.1	3
0	78792	7879.1	4
0	78830	7882.9	2
0	78868	7886.7	12
0	78966	7896.5	17
0	79030	7902.9	2
0	79118	7911.7	4
0	79132	7913.1	9
0	79136	7913.5	2
0	79138	7913.7	1
0	79390	7938.9	2
0	79428	7942.7	3
0	79464	7946.3	13
0	79506	7950.5	3
0	79602	7960.1	46
0	79688	7968.7	1
0	79738	7973.7	13
0	79752	7975.1	9
0	79756	7975.5	2
0	79830	7982.9	8
0	79950	7994.9	37
0	80062	8006.1	2
0	80174	8017.3	18
0	80452	8045.1	51
0	80454	8045.3	1
0	80482	8048.1	14
0	80518	8051.7	4
0	80580	8057.9	4
0	80594	8059.3	10
0	80718	8071.7	5
0	80746	8074.5	17
0	80794	8079.3	8
0	80840	8083.9	22
0	80918	8091.7	9
0	81020	8101.9	9
0	81066	8106.5	4
0	81120	8111.9	24
0	81208	8120.7	5
0	81236	8123.5	11
0	81300	8129.9	8
0	81346	8134.5	13
0	81378	8137.7	16
0	81466	8146.5	15
0	81514	8151.3	4
0	81584	8158.3	32
0	81678	8167.7	16
0	81680	8167.9	1
0	81728	8172.7	8
0	81808	8180.7	2
0	81822	8182.1	8
0	81876	8187.5	3
0	81896	8189.5	6
0	81900	8189.9	3
0	81922	8192.1	1
0	81968	8196.7	3
0	81984	8198.3	5
0	81988	8198.7	3
0	82028	8202.7	6
0	82052	8205.1	16
0	82112	8211.1	9
0	82184	8218.3	1
0	82210	8220.9	1
0	82258	8225.7	3
0	82282	8228.1	1
0	82398	8239.7	55
0	82476	8247.5	4
0	82526	8252.5	5
0	82550	8254.9	17
0	82632	8263.1	8
0	82676	8267.5	17
0	82908	8290.7	28
0	82950	8294.9	4
0	82978	8297.7	3
0	83036	8303.5	10
0	83064	8306.3	11
0	83080	8307.9	9
0	83130	8312.9	13
0	83278	8327.7	9
0	83364	8336.3	9
0	83458	8345.7	11
0	83524	8352.3	16
0	83590	8358.9	21
0	83610	8360.9	13
0	83628	8362.7	7
0	83648	8364.7	5
0	83810	8380.9	24
0	83860	8385.9	3
0	83882	8388.1	12
0	83948	8394.7	16
0	83996	8399.5	35
0	84040	8403.9	2
0	84178	8417.7	2
0	84298	8429.7	29
0	84384	8438.3	20
0	84410	8440.9	11
0	84516	8451.5	23
0	84534	8453.3	7
0	84638	8463.7	9
0	84758	8475.7	5
0	84860	8485.9	19
0	84926	8492.5	5
0	84960	8495.9	3
0	85008	8500.7	26
0	85180	8517.9	27
0	85258	8525.7	12
0	85276	8527.5	4
0	85356	8535.5	76
0	85472	8547.1	24
0	85490	8548.9	16
0	85710	8570.9	41
0	85784	8578.3	19
0	85888	8588.7	17
0	85902	8590.1	3
0	85944	8594.3	18
0	85978	8597.7	13
0	86044	8604.3	1
0	86096	8609.5	22
0	86138	8613.7	15
0	86266	8626.5	11
0	86304	8630.3	6
0	86382	8638.1	13
0	86418	8641.7	25
0	86530	8652.9	13
0	86566	8656.5	33
0	86602	8660.1	5
0	86654	8665.3	10
0	86702	8670.1	3
0	86722	8672.1	2
0	86782	8678.1	3
0	86894	8689.3	11
0	87016	8701.5	26
0	87044	8704.3	3
0	87100	8709.9	19
0	87130	8712.9	1
0	87132	8713.1	1
0	87318	8731.7	55
0	87414	8741.3	20
0	87446	8744.5	17
0	87462	8746.1	8
0	87532	8753.1	1
0	87578	8757.7	5
0	87652	8765.1	3
0	87672	8767.1	5
0	87698	8769.7	21
0	87752	8775.1	21
0	87792	8779.1	9
0	87830	8782.9	5
0	87880	8787.9	41
0	87954	8795.3	9
0	87988	8798.7	8
0	88002	8800.1	12
0	88022	8802.1	12
0	88080	8807.9	2
0	88154	8815.3	14
0	88192	8819.1	36
0	88218	8821.7	14
0	88244	8824.3	15
0	88306	8830.5	6
0	88372	8837.1	44
0	88548	8854.7	23
0	88620	8861.9	5
0	88664	8866.3	39
0	88736	8873.5	47
0	88784	8878.3	7
0	88836	8883.5	3
0	88862	8886.1	1
0	88964	8896.3	47
0	88976	8897.5	4
0	89020	8901.9	16
0	89058	8905.7	3
0	89102	8910.1	1
0	89144	8914.3	21
0	89174	8917.3	15
0	89262	8926.1	73
0	89270	8926.9	4
0	89298	8929.7	8
0	89506	8950.5	65
0	89516	8951.5	6
0	89632	8963.1	32
0	89700	8969.9	2
0	89772	8977.1	18
0	89856	8985.5	7
0	89914	8991.3	4
0	89968	8996.7	3
0	89978	8997.7	7
0	90000	8999.9	11
0	90030	9002.9	4
0	90120	9011.9	25
0	90136	9013.5	14
0	90154	9015.3	11
0	90168	9016.7	11
0	90192	9019.1	21
0	90202	9020.1	9
0	90342	9034.1	9
0	90364	9036.3	5
0	90380	9037.9	14
0	90412	9041.1	2
0	90494	9049.3	1
0	90510	9050.9	6
0	90648	9064.7	19
0	90698	9069.7	3
0	90736	9073.5	4
0	90778	9077.7	23
0	90860	9085.9	4
0	90904	9090.3	2
0	90920	9091.9	4
0	90946	9094.5	15
0	90952	9095.1	5
0	90998	9099.7	7
0	91002	9100.1	2
0	91226	9122.5	16
0	91246	9124.5	6
0	91340	9133.9	14
0	91536	9153.5	15
0	91568	9156.7	5
0	91712	9171.1	5
0	91754	9175.3	9
0	91772	9177.1	9
0	91798	9179.7	7
0	91816	9181.5	3
0	91886	9188.5	37
0	91912	9191.1	11
0	91920	9191.9	5
0	91986	9198.5	45
0	92094	9209.3	27
0	92118	9211.7	15
0	92194	9219.3	9
0	92292	9229.1	2
0	92306	9230.5	4
0	92368	9236.7	17
0	92418	9241.7	31
0	92480	9247.9	11
0	92522	9252.1	9
0	92630	9262.9	2
0	92666	9266.5	8
0	92710	9270.9	12
0	92798	9279.7	8
0	92872	9287.1	8
0	92914	9291.3	19
0	92960	9295.9	17
0	93032	9303.1	29
0	93170	9316.9	26
0	93206	9320.5	3
0	93250	9324.9	39
0	93270	9326.9	6
0	93380	9337.9	1
0	93474	9347.3	7
0	93506	9350.5	5
0	93554	9355.3	14
0	93826	9382.5	20
0	93888	9388.7	22
0	94038	9403.7	4
0	94116	9411.5	2
0	94206	9420.5	4
0	94212	9421.1	2
0	94274	9427.3	2
0	94322	9432.1	26
0	94354	9435.3	2
0	94416	9441.5	27
0	94460	9445.9	18
0	94484	9448.3	5
0	94576	9457.5	9
0	94592	9459.1	14
0	94618	9461.7	9
0	94638	9463.7	6
0	94650	9464.9	10
0	94740	9473.9	5
0	94746	9474.5	1
0	94812	9481.1	8
0	94836	9483.5	2
0	94894	9489.3	23
0	94966	9496.5	22
0	94986	9498.5	19
0	95040	9503.9	17
0	95080	9507.9	1
0	95242	9524.1	5
0	95256	9525.5	2
0	95306	9530.5	19
0	95576	9557.5	25
0	95594	9559.3	11
0	95684	9568.3	3
0	95782	9578.1	11
0	95888	9588.7	3
0	95938	9593.7	1
0	95994	9599.3	9
0	96004	9600.3	2
0	96052	9605.1	31
0	96066	9606.5	9
0	96070	9606.9	2
0	96136	9613.5	15
0	96160	9615.9	23
0	96188	9618.7	17
0	96258	9625.7	2
0	96274	9627.3	12
0	96286	9628.5	2
0	96308	9630.7	15
0	96378	9637.7	4
0	96420	9641.9	7
0	96464	9646.3	22
0	96472	9647.1	2
0	96578	9657.7	31
0	96604	9660.3	24
0	96660	9665.9	23
0	96664	9666.3	3
0	96668	9666.7	2
0	96708	9670.7	10
0	96742	9674.1	7
0	96786	9678.5	38
0	96804	9680.3	4
0	96850	9684.9	4
0	96918	9691.7	7
0	97028	9702.7	14
0	97066	9706.5	8
0	97102	9710.1	16
0	97134	9713.3	28
0	97174	9717.3	23
0	97186	9718.5	10
0	97230	9722.9	8
0	97238	9723.7	7
0	97270	9726.9	9
0	97324	9732.3	29
0	97376	9737.5	42
0	97410	9740.9	15
0	97446	9744.5	13
0	97514	9751.3	31
0	97612	9761.1	10
0	97696	9769.5	9
0	97736	9773.5	38
0	97776	9777.5	1
0	97856	9785.5	15
0	97946	9794.5	3
0	97986	9798.5	4
0	98062	9806.1	11
0	98078	9807.7	6
0	98118	9811.7	26
0	98288	9828.7	24